# Created by CSS Data Browser Version 3.2.17.201610260844
# 
# Start Time : 2018/12/05 20:30:00.000000000
# End Time   : 2018/12/05 21:30:00.000000000
# Source     : Raw Archived Data
# Format     : Decimal (10 digits)
# 
# Data is in TAB-delimited columns, should import into e.g. Excel

# Channel: ACC_RFQ_VAC::CCG01:Ps
# Archives:
# 1) va
#    URL: xnds://10.1.204.12/cgi-bin/archiver/ArchiveDataServer.cgi
#    Key: 5
# 

# Time	ACC_RFQ_VAC::CCG01:Ps Value	Severity	Status
2018/12/05 20:29:59.928747937	0.0000016656	NONE	OK
2018/12/05 20:30:00.328899885	0.0000016784	NONE	OK
2018/12/05 20:30:00.729371176	0.0000016529	NONE	OK
2018/12/05 20:30:01.329691501	0.0000016979	NONE	OK
2018/12/05 20:30:01.729283814	0.0000016720	NONE	OK
2018/12/05 20:30:02.330020358	0.0000016914	NONE	OK
2018/12/05 20:30:02.730252602	0.0000016656	NONE	OK
2018/12/05 20:30:03.330080212	0.0000021049	NONE	OK
2018/12/05 20:30:03.730977596	0.0000017374	NONE	OK
2018/12/05 20:30:04.130446883	0.0000016720	NONE	OK
2018/12/05 20:30:04.130446883	0.0000016720	NONE	OK
2018/12/05 20:30:04.730956953	0.0000016849	NONE	OK
2018/12/05 20:30:05.130985078	0.0000016592	NONE	OK
2018/12/05 20:30:05.731906591	0.0000017109	NONE	OK
2018/12/05 20:30:06.131770469	0.0000016592	NONE	OK
2018/12/05 20:30:06.732056383	0.0000016529	NONE	OK
2018/12/05 20:30:07.132419013	0.0000016339	NONE	OK
2018/12/05 20:30:08.132921296	0.0000016592	NONE	OK
2018/12/05 20:30:08.533025282	0.0000016656	NONE	OK
2018/12/05 20:30:09.133781681	0.0000016784	NONE	OK
2018/12/05 20:30:09.133781681	0.0000016784	NONE	OK
2018/12/05 20:30:09.533773901	0.0000016465	NONE	OK
2018/12/05 20:30:10.134029193	0.0000016784	NONE	OK
2018/12/05 20:30:11.134720631	0.0000016656	NONE	OK
2018/12/05 20:30:11.535085680	0.0000016979	NONE	OK
2018/12/05 20:30:11.935350059	0.0000016339	NONE	OK
2018/12/05 20:30:12.535640354	0.0000016465	NONE	OK
2018/12/05 20:30:12.936041123	0.0000016277	NONE	OK
2018/12/05 20:30:13.535888161	0.0000016529	NONE	OK
2018/12/05 20:30:13.936532492	0.0000016152	NONE	OK
2018/12/05 20:30:13.936532492	0.0000016152	NONE	OK
2018/12/05 20:30:14.536868683	0.0000016849	NONE	OK
2018/12/05 20:30:14.936832983	0.0000016914	NONE	OK
2018/12/05 20:30:15.337362551	0.0000016720	NONE	OK
2018/12/05 20:30:15.937585896	0.0000016465	NONE	OK
2018/12/05 20:30:16.337471812	0.0000016529	NONE	OK
2018/12/05 20:30:16.938075032	0.0000016849	NONE	OK
2018/12/05 20:30:17.938563705	0.0000016720	NONE	OK
2018/12/05 20:30:18.739019511	0.0000016529	NONE	OK
2018/12/05 20:30:19.339806543	0.0000016465	NONE	OK
2018/12/05 20:30:19.339806543	0.0000016465	NONE	OK
2018/12/05 20:30:19.739830584	0.0000016720	NONE	OK
2018/12/05 20:30:20.339883041	0.0000016465	NONE	OK
2018/12/05 20:30:20.739828727	0.0000016849	NONE	OK
2018/12/05 20:30:21.340625000	0.0000016720	NONE	OK
2018/12/05 20:30:21.740786469	0.0000016656	NONE	OK
2018/12/05 20:30:22.141098309	0.0000016465	NONE	OK
2018/12/05 20:30:22.741251465	0.0000016592	NONE	OK
2018/12/05 20:30:23.141383129	0.0000016529	NONE	OK
2018/12/05 20:30:23.742144128	0.0000016914	NONE	OK
2018/12/05 20:30:23.742144128	0.0000016914	NONE	OK
2018/12/05 20:30:24.142135315	0.0000016656	NONE	OK
2018/12/05 20:30:25.142453415	0.0000016914	NONE	OK
2018/12/05 20:30:25.542727726	0.0000016849	NONE	OK
2018/12/05 20:30:26.142822011	0.0000016402	NONE	OK
2018/12/05 20:30:26.543261430	0.0000016277	NONE	OK
2018/12/05 20:30:27.143651879	0.0000016784	NONE	OK
2018/12/05 20:30:27.543978691	0.0000016339	NONE	OK
2018/12/05 20:30:28.144170447	0.0000016402	NONE	OK
2018/12/05 20:30:28.544460310	0.0000016029	NONE	OK
2018/12/05 20:30:28.544460310	0.0000016029	NONE	OK
2018/12/05 20:30:28.944828800	0.0000027962	NONE	OK
2018/12/05 20:30:29.545232632	0.0000022641	NONE	OK
2018/12/05 20:30:29.945506095	0.0000018054	NONE	OK
2018/12/05 20:30:30.546049181	0.0000017374	NONE	OK
2018/12/05 20:30:30.945678225	0.0000016914	NONE	OK
2018/12/05 20:30:31.546452273	0.0000016784	NONE	OK
2018/12/05 20:30:31.946202299	0.0000016720	NONE	OK
2018/12/05 20:30:32.346684061	0.0000016979	NONE	OK
2018/12/05 20:30:32.946885181	0.0000016592	NONE	OK
2018/12/05 20:30:32.946885181	0.0000016592	NONE	OK
2018/12/05 20:30:33.347327811	0.0000016784	NONE	OK
2018/12/05 20:30:33.948121259	0.0000016402	NONE	OK
2018/12/05 20:30:34.347796156	0.0000016656	NONE	OK
2018/12/05 20:30:34.948104115	0.0000016592	NONE	OK
2018/12/05 20:30:35.348376943	0.0000016529	NONE	OK
2018/12/05 20:30:35.748306265	0.0000016720	NONE	OK
2018/12/05 20:30:36.348601430	0.0000016914	NONE	OK
2018/12/05 20:30:36.749118399	0.0000016402	NONE	OK
2018/12/05 20:30:37.349592077	0.0000016656	NONE	OK
2018/12/05 20:30:37.349592077	0.0000016656	NONE	OK
2018/12/05 20:30:37.749704777	0.0000016592	NONE	OK
2018/12/05 20:30:38.349873297	0.0000016339	NONE	OK
2018/12/05 20:30:38.750008644	0.0000016656	NONE	OK
2018/12/05 20:30:39.350224947	0.0000016339	NONE	OK
2018/12/05 20:30:39.750655756	0.0000016784	NONE	OK
2018/12/05 20:30:41.151621640	0.0000016090	NONE	OK
2018/12/05 20:30:41.751803940	0.0000016529	NONE	OK
2018/12/05 20:30:42.151984221	0.0000016720	NONE	OK
2018/12/05 20:30:42.752152049	0.0000016849	NONE	OK
2018/12/05 20:30:42.752152049	0.0000016849	NONE	OK
2018/12/05 20:30:43.152537443	0.0000016402	NONE	OK
2018/12/05 20:30:43.552751610	0.0000016592	NONE	OK
2018/12/05 20:30:44.152840715	0.0000016339	NONE	OK
2018/12/05 20:30:44.553281124	0.0000016529	NONE	OK
2018/12/05 20:30:45.153526934	0.0000016402	NONE	OK
2018/12/05 20:30:45.554022679	0.0000016849	NONE	OK
2018/12/05 20:30:46.154111754	0.0000016656	NONE	OK
2018/12/05 20:30:46.554079879	0.0000016592	NONE	OK
2018/12/05 20:30:46.954772512	0.0000016465	NONE	OK
2018/12/05 20:30:46.954772512	0.0000016465	NONE	OK
2018/12/05 20:30:47.954760093	0.0000016592	NONE	OK
2018/12/05 20:30:48.555681676	0.0000108780	NONE	OK
2018/12/05 20:30:48.956260912	0.0000279620	NONE	OK
2018/12/05 20:30:49.556137343	0.0000193450	NONE	OK
2018/12/05 20:30:49.956518297	0.0000134350	NONE	OK
2018/12/05 20:30:50.356758663	0.0000154850	NONE	OK
2018/12/05 20:30:50.956995502	0.0000222960	NONE	OK
2018/12/05 20:30:51.357275807	0.0000098833	NONE	OK
2018/12/05 20:30:51.957491638	0.0000044147	NONE	OK
2018/12/05 20:30:51.957491638	0.0000044147	NONE	OK
2018/12/05 20:30:52.357572877	0.0000032727	NONE	OK
2018/12/05 20:30:52.957706441	0.0000028504	NONE	OK
2018/12/05 20:30:53.358257451	0.0000026499	NONE	OK
2018/12/05 20:30:53.758249444	0.0000025210	NONE	OK
2018/12/05 20:30:54.359339553	0.0000023983	NONE	OK
2018/12/05 20:30:54.759493184	0.0000023708	NONE	OK
2018/12/05 20:30:55.359570011	0.0000022728	NONE	OK
2018/12/05 20:30:55.759495325	0.0000022992	NONE	OK
2018/12/05 20:30:56.360088341	0.0000022041	NONE	OK
2018/12/05 20:30:56.360088341	0.0000022041	NONE	OK
2018/12/05 20:30:56.760837436	0.0000021705	NONE	OK
2018/12/05 20:30:57.160829532	0.0000020969	NONE	OK
2018/12/05 20:30:58.161022009	0.0000020808	NONE	OK
2018/12/05 20:30:59.161204374	0.0000020257	NONE	OK
2018/12/05 20:31:00.161844093	0.0000020413	NONE	OK
2018/12/05 20:31:00.562455838	0.0000020570	NONE	OK
2018/12/05 20:31:01.162686209	0.0000020179	NONE	OK
2018/12/05 20:31:01.563015139	0.0000019419	NONE	OK
2018/12/05 20:31:02.163153464	0.0000019872	NONE	OK
2018/12/05 20:31:02.163153464	0.0000019872	NONE	OK
2018/12/05 20:31:02.563275287	0.0000019494	NONE	OK
2018/12/05 20:31:03.163499988	0.0000019419	NONE	OK
2018/12/05 20:31:03.564088613	0.0000019494	NONE	OK
2018/12/05 20:31:04.163919561	0.0000019124	NONE	OK
2018/12/05 20:31:04.564138674	0.0000018977	NONE	OK
2018/12/05 20:31:05.565299904	0.0000019569	NONE	OK
2018/12/05 20:31:05.965528836	0.0000019197	NONE	OK
2018/12/05 20:31:06.565460604	0.0000018688	NONE	OK
2018/12/05 20:31:06.966212707	0.0000018832	NONE	OK
2018/12/05 20:31:06.966212707	0.0000018832	NONE	OK
2018/12/05 20:31:07.566232228	0.0000018977	NONE	OK
2018/12/05 20:31:07.966279246	0.0000018905	NONE	OK
2018/12/05 20:31:08.366422838	0.0000018688	NONE	OK
2018/12/05 20:31:09.367999758	0.0000046228	NONE	OK
2018/12/05 20:31:09.967576304	0.0000027431	NONE	OK
2018/12/05 20:31:10.367563971	0.0000021293	NONE	OK
2018/12/05 20:31:10.967883213	0.0000020102	NONE	OK
2018/12/05 20:31:11.368120111	0.0000019494	NONE	OK
2018/12/05 20:31:11.768302424	0.0000019124	NONE	OK
2018/12/05 20:31:11.768302424	0.0000019124	NONE	OK
2018/12/05 20:31:12.368952729	0.0000018760	NONE	OK
2018/12/05 20:31:12.768835655	0.0000018617	NONE	OK
2018/12/05 20:31:13.369056052	0.0000018545	NONE	OK
2018/12/05 20:31:13.769134054	0.0000018474	NONE	OK
2018/12/05 20:31:14.369500566	0.0000018545	NONE	OK
2018/12/05 20:31:14.769894192	0.0000018474	NONE	OK
2018/12/05 20:31:15.170379684	0.0000018617	NONE	OK
2018/12/05 20:31:16.170483379	0.0000018832	NONE	OK
2018/12/05 20:31:16.771128576	0.0000018193	NONE	OK
2018/12/05 20:31:16.771128576	0.0000018193	NONE	OK
2018/12/05 20:31:17.171664956	0.0000018404	NONE	OK
2018/12/05 20:31:18.172073818	0.0000018123	NONE	OK
2018/12/05 20:31:18.572904721	0.0000018688	NONE	OK
2018/12/05 20:31:19.172535354	0.0000018404	NONE	OK
2018/12/05 20:31:19.572811814	0.0000017916	NONE	OK
2018/12/05 20:31:20.172719746	0.0000018545	NONE	OK
2018/12/05 20:31:20.573048852	0.0000017916	NONE	OK
2018/12/05 20:31:21.173432986	0.0000018263	NONE	OK
2018/12/05 20:31:21.573742892	0.0000018193	NONE	OK
2018/12/05 20:31:21.573742892	0.0000018193	NONE	OK
2018/12/05 20:31:21.974590377	0.0000017508	NONE	OK
2018/12/05 20:31:22.574938034	0.0000018617	NONE	OK
2018/12/05 20:31:22.974730348	0.0000017847	NONE	OK
2018/12/05 20:31:23.575116330	0.0000017985	NONE	OK
2018/12/05 20:31:23.975256899	0.0000017779	NONE	OK
2018/12/05 20:31:24.575563338	0.0000017441	NONE	OK
2018/12/05 20:31:24.975720320	0.0000017711	NONE	OK
2018/12/05 20:31:25.376101789	0.0000017847	NONE	OK
2018/12/05 20:31:26.376724059	0.0000017643	NONE	OK
2018/12/05 20:31:26.376724059	0.0000017643	NONE	OK
2018/12/05 20:31:26.976795265	0.0000017916	NONE	OK
2018/12/05 20:31:27.377191153	0.0000017643	NONE	OK
2018/12/05 20:31:28.044481625	0.0000017575	NONE	OK
2018/12/05 20:31:28.377921475	0.0000018263	NONE	OK
2018/12/05 20:31:28.778448708	0.0000017847	NONE	OK
2018/12/05 20:31:29.378350940	0.0000017916	NONE	OK
2018/12/05 20:31:29.778455505	0.0000017847	NONE	OK
2018/12/05 20:31:30.379015188	0.0000017985	NONE	OK
2018/12/05 20:31:30.779247126	0.0000017847	NONE	OK
2018/12/05 20:31:30.779247126	0.0000017847	NONE	OK
2018/12/05 20:31:31.779809302	0.0000017508	NONE	OK
2018/12/05 20:31:32.379875978	0.0000017779	NONE	OK
2018/12/05 20:31:32.779894298	0.0000018474	NONE	OK
2018/12/05 20:31:33.180137308	0.0000017643	NONE	OK
2018/12/05 20:31:33.780536207	0.0000017308	NONE	OK
2018/12/05 20:31:34.180788992	0.0000017241	NONE	OK
2018/12/05 20:31:34.781407795	0.0000017508	NONE	OK
2018/12/05 20:31:35.781584014	0.0000017847	NONE	OK
2018/12/05 20:31:36.182223235	0.0000017711	NONE	OK
2018/12/05 20:31:36.182223235	0.0000017711	NONE	OK
2018/12/05 20:31:37.067431305	0.0000017575	NONE	OK
2018/12/05 20:31:38.067853578	0.0000017374	NONE	OK
2018/12/05 20:31:38.583520389	0.0000017916	NONE	OK
2018/12/05 20:31:39.067548072	0.0000017508	NONE	OK
2018/12/05 20:31:40.584813808	0.0000017916	NONE	OK
2018/12/05 20:31:41.068919439	0.0000017109	NONE	OK
2018/12/05 20:31:41.585475464	0.0000017308	NONE	OK
2018/12/05 20:31:42.068083420	0.0000017711	NONE	OK
2018/12/05 20:31:42.586839828	0.0000017847	NONE	OK
2018/12/05 20:31:42.586839828	0.0000017847	NONE	OK
2018/12/05 20:31:43.067901848	0.0000017779	NONE	OK
2018/12/05 20:31:43.386583844	0.0000017916	NONE	OK
2018/12/05 20:31:44.069036010	0.0000017779	NONE	OK
2018/12/05 20:31:44.387130139	0.0000017308	NONE	OK
2018/12/05 20:31:45.068582753	0.0000017044	NONE	OK
2018/12/05 20:31:45.387948886	0.0000018054	NONE	OK
2018/12/05 20:31:46.068366168	0.0000017643	NONE	OK
2018/12/05 20:31:46.388100930	0.0000017779	NONE	OK
2018/12/05 20:31:46.788546327	0.0000017241	NONE	OK
2018/12/05 20:31:46.788546327	0.0000017241	NONE	OK
2018/12/05 20:31:47.388952429	0.0000017779	NONE	OK
2018/12/05 20:31:47.788812745	0.0000017441	NONE	OK
2018/12/05 20:31:48.389521772	0.0000017575	NONE	OK
2018/12/05 20:31:48.789978273	0.0000016979	NONE	OK
2018/12/05 20:31:49.389692362	0.0000017308	NONE	OK
2018/12/05 20:31:49.790380407	0.0000017175	NONE	OK
2018/12/05 20:31:50.190444579	0.0000017985	NONE	OK
2018/12/05 20:31:50.790811734	0.0000017044	NONE	OK
2018/12/05 20:31:51.190985660	0.0000017308	NONE	OK
2018/12/05 20:31:51.190985660	0.0000017308	NONE	OK
2018/12/05 20:31:51.791517770	0.0000017441	NONE	OK
2018/12/05 20:31:52.191399238	0.0000017241	NONE	OK
2018/12/05 20:31:52.791484635	0.0000017044	NONE	OK
2018/12/05 20:31:53.191831324	0.0000017441	NONE	OK
2018/12/05 20:31:53.591891689	0.0000017308	NONE	OK
2018/12/05 20:31:54.192384497	0.0000017441	NONE	OK
2018/12/05 20:31:55.068869449	0.0000017779	NONE	OK
2018/12/05 20:31:56.069739784	0.0000017109	NONE	OK
2018/12/05 20:31:56.593655914	0.0000017308	NONE	OK
2018/12/05 20:31:56.593655914	0.0000017308	NONE	OK
2018/12/05 20:31:57.069617800	0.0000016849	NONE	OK
2018/12/05 20:31:57.594207160	0.0000016402	NONE	OK
2018/12/05 20:31:58.069072478	0.0000017109	NONE	OK
2018/12/05 20:31:58.594556538	0.0000016849	NONE	OK
2018/12/05 20:31:59.595133506	0.0000016784	NONE	OK
2018/12/05 20:32:00.595950536	0.0000016979	NONE	OK
2018/12/05 20:32:01.069594079	0.0000016784	NONE	OK
2018/12/05 20:32:01.396084475	0.0000016914	NONE	OK
2018/12/05 20:32:02.070264645	0.0000016656	NONE	OK
2018/12/05 20:32:02.070264645	0.0000016656	NONE	OK
2018/12/05 20:32:03.070623342	0.0000017241	NONE	OK
2018/12/05 20:32:03.397044713	0.0000016784	NONE	OK
2018/12/05 20:32:04.070785375	0.0000016402	NONE	OK
2018/12/05 20:32:04.398108496	0.0000016656	NONE	OK
2018/12/05 20:32:04.798345140	0.0000016914	NONE	OK
2018/12/05 20:32:05.398559352	0.0000017044	NONE	OK
2018/12/05 20:32:05.798398619	0.0000016849	NONE	OK
2018/12/05 20:32:06.398933423	0.0000016720	NONE	OK
2018/12/05 20:32:06.799160420	0.0000016592	NONE	OK
2018/12/05 20:32:06.799160420	0.0000016592	NONE	OK
2018/12/05 20:32:07.399467128	0.0000016465	NONE	OK
2018/12/05 20:32:07.799693665	0.0000016914	NONE	OK
2018/12/05 20:32:08.200032532	0.0000016592	NONE	OK
2018/12/05 20:32:08.800427778	0.0000017109	NONE	OK
2018/12/05 20:32:09.200417358	0.0000016784	NONE	OK
2018/12/05 20:32:09.800779607	0.0000016656	NONE	OK
2018/12/05 20:32:10.201122320	0.0000016914	NONE	OK
2018/12/05 20:32:10.801208896	0.0000016849	NONE	OK
2018/12/05 20:32:11.201453542	0.0000016720	NONE	OK
2018/12/05 20:32:11.201453542	0.0000016720	NONE	OK
2018/12/05 20:32:11.601977669	0.0000017044	NONE	OK
2018/12/05 20:32:12.202449239	0.0000016656	NONE	OK
2018/12/05 20:32:12.602356360	0.0000016784	NONE	OK
2018/12/05 20:32:13.072708775	0.0000016849	NONE	OK
2018/12/05 20:32:13.603159506	0.0000016979	NONE	OK
2018/12/05 20:32:14.071106430	0.0000017044	NONE	OK
2018/12/05 20:32:15.071394711	0.0000016914	NONE	OK
2018/12/05 20:32:15.604275239	0.0000016979	NONE	OK
2018/12/05 20:32:16.071513648	0.0000017109	NONE	OK
2018/12/05 20:32:16.071513648	0.0000017109	NONE	OK
2018/12/05 20:32:16.604631027	0.0000017044	NONE	OK
2018/12/05 20:32:17.071507917	0.0000016656	NONE	OK
2018/12/05 20:32:17.605029598	0.0000017044	NONE	OK
2018/12/05 20:32:18.071125211	0.0000016979	NONE	OK
2018/12/05 20:32:18.405618532	0.0000016784	NONE	OK
2018/12/05 20:32:19.072136676	0.0000017241	NONE	OK
2018/12/05 20:32:19.406272712	0.0000017044	NONE	OK
2018/12/05 20:32:20.071456490	0.0000016784	NONE	OK
2018/12/05 20:32:20.406580897	0.0000016914	NONE	OK
2018/12/05 20:32:20.406580897	0.0000016914	NONE	OK
2018/12/05 20:32:21.071530034	0.0000016979	NONE	OK
2018/12/05 20:32:21.407532811	0.0000016914	NONE	OK
2018/12/05 20:32:21.807657129	0.0000016849	NONE	OK
2018/12/05 20:32:22.407897867	0.0000016656	NONE	OK
2018/12/05 20:32:22.808062977	0.0000016979	NONE	OK
2018/12/05 20:32:23.408372728	0.0000017109	NONE	OK
2018/12/05 20:32:23.808708643	0.0000016784	NONE	OK
2018/12/05 20:32:24.408893152	0.0000017044	NONE	OK
2018/12/05 20:32:24.809254606	0.0000016720	NONE	OK
2018/12/05 20:32:24.809254606	0.0000016720	NONE	OK
2018/12/05 20:32:25.409515760	0.0000016849	NONE	OK
2018/12/05 20:32:25.809708378	0.0000016979	NONE	OK
2018/12/05 20:32:26.209706563	0.0000016914	NONE	OK
2018/12/05 20:32:26.810597509	0.0000016979	NONE	OK
2018/12/05 20:32:27.210513080	0.0000017044	NONE	OK
2018/12/05 20:32:27.810561674	0.0000016592	NONE	OK
2018/12/05 20:32:28.210722112	0.0000017109	NONE	OK
2018/12/05 20:32:28.811688904	0.0000016402	NONE	OK
2018/12/05 20:32:29.211755861	0.0000016979	NONE	OK
2018/12/05 20:32:29.211755861	0.0000016979	NONE	OK
2018/12/05 20:32:29.611505772	0.0000016784	NONE	OK
2018/12/05 20:32:30.612656414	0.0000016465	NONE	OK
2018/12/05 20:32:31.073448089	0.0000016784	NONE	OK
2018/12/05 20:32:31.613080341	0.0000016849	NONE	OK
2018/12/05 20:32:32.073458253	0.0000016592	NONE	OK
2018/12/05 20:32:34.073538198	0.0000016720	NONE	OK
2018/12/05 20:32:34.614641197	0.0000016849	NONE	OK
2018/12/05 20:32:35.073873520	0.0000016402	NONE	OK
2018/12/05 20:32:35.614946480	0.0000016339	NONE	OK
2018/12/05 20:32:35.614946480	0.0000016339	NONE	OK
2018/12/05 20:32:36.073468409	0.0000016402	NONE	OK
2018/12/05 20:32:36.416324082	0.0000016720	NONE	OK
2018/12/05 20:32:37.074553965	0.0000016152	NONE	OK
2018/12/05 20:32:37.416542326	0.0000016849	NONE	OK
2018/12/05 20:32:38.074307662	0.0000016339	NONE	OK
2018/12/05 20:32:38.416902397	0.0000016720	NONE	OK
2018/12/05 20:32:39.074400093	0.0000016339	NONE	OK
2018/12/05 20:32:39.417467785	0.0000016720	NONE	OK
2018/12/05 20:32:39.817483970	0.0000016402	NONE	OK
2018/12/05 20:32:39.817483970	0.0000016402	NONE	OK
2018/12/05 20:32:40.417938771	0.0000016152	NONE	OK
2018/12/05 20:32:40.818037038	0.0000016720	NONE	OK
2018/12/05 20:32:41.418315716	0.0000016529	NONE	OK
2018/12/05 20:32:41.818912619	0.0000016592	NONE	OK
2018/12/05 20:32:42.418938640	0.0000016277	NONE	OK
2018/12/05 20:32:42.818990464	0.0000016656	NONE	OK
2018/12/05 20:32:43.219755076	0.0000016979	NONE	OK
2018/12/05 20:32:43.819979324	0.0000016402	NONE	OK
2018/12/05 20:32:44.219958274	0.0000016214	NONE	OK
2018/12/05 20:32:44.219958274	0.0000016214	NONE	OK
2018/12/05 20:32:44.820601229	0.0000016720	NONE	OK
2018/12/05 20:32:45.220661871	0.0000016339	NONE	OK
2018/12/05 20:32:45.821059116	0.0000016465	NONE	OK
2018/12/05 20:32:46.221515575	0.0000016979	NONE	OK
2018/12/05 20:32:46.621826936	0.0000016029	NONE	OK
2018/12/05 20:32:47.221678563	0.0000016214	NONE	OK
2018/12/05 20:32:47.621785029	0.0000016529	NONE	OK
2018/12/05 20:32:48.222154526	0.0000016402	NONE	OK
2018/12/05 20:32:48.622374055	0.0000016339	NONE	OK
2018/12/05 20:32:48.622374055	0.0000016339	NONE	OK
2018/12/05 20:32:49.075158399	0.0000016214	NONE	OK
2018/12/05 20:32:49.623346100	0.0000016402	NONE	OK
2018/12/05 20:32:50.075226835	0.0000016784	NONE	OK
2018/12/05 20:32:50.623685464	0.0000016720	NONE	OK
2018/12/05 20:32:51.074430103	0.0000016592	NONE	OK
2018/12/05 20:32:51.624432667	0.0000016339	NONE	OK
2018/12/05 20:32:52.075781164	0.0000016592	NONE	OK
2018/12/05 20:32:52.624623746	0.0000016277	NONE	OK
2018/12/05 20:32:53.075823690	0.0000016592	NONE	OK
2018/12/05 20:32:53.075823690	0.0000016592	NONE	OK
2018/12/05 20:32:53.625036379	0.0000016784	NONE	OK
2018/12/05 20:32:54.075869094	0.0000017044	NONE	OK
2018/12/05 20:32:54.425808968	0.0000016339	NONE	OK
2018/12/05 20:32:55.076165765	0.0000016656	NONE	OK
2018/12/05 20:32:55.426070000	0.0000016465	NONE	OK
2018/12/05 20:32:56.075825813	0.0000016402	NONE	OK
2018/12/05 20:32:56.427170231	0.0000016656	NONE	OK
2018/12/05 20:32:57.427321326	0.0000016529	NONE	OK
2018/12/05 20:32:57.827365099	0.0000016402	NONE	OK
2018/12/05 20:32:57.827365099	0.0000016402	NONE	OK
2018/12/05 20:32:58.427915829	0.0000016214	NONE	OK
2018/12/05 20:32:58.828046747	0.0000016720	NONE	OK
2018/12/05 20:32:59.428303546	0.0000017044	NONE	OK
2018/12/05 20:32:59.828544166	0.0000016277	NONE	OK
2018/12/05 20:33:00.428858891	0.0000016339	NONE	OK
2018/12/05 20:33:00.829244991	0.0000016529	NONE	OK
2018/12/05 20:33:01.829525395	0.0000016339	NONE	OK
2018/12/05 20:33:02.230521413	0.0000016029	NONE	OK
2018/12/05 20:33:02.830030358	0.0000016214	NONE	OK
2018/12/05 20:33:02.830030358	0.0000016214	NONE	OK
2018/12/05 20:33:03.230615106	0.0000016592	NONE	OK
2018/12/05 20:33:03.830982576	0.0000016656	NONE	OK
2018/12/05 20:33:04.231091849	0.0000016152	NONE	OK
2018/12/05 20:33:04.631368544	0.0000016090	NONE	OK
2018/12/05 20:33:05.231796723	0.0000016339	NONE	OK
2018/12/05 20:33:05.632496675	0.0000016465	NONE	OK
2018/12/05 20:33:06.232291322	0.0000016784	NONE	OK
2018/12/05 20:33:06.632580453	0.0000016592	NONE	OK
2018/12/05 20:33:07.076672655	0.0000016214	NONE	OK
2018/12/05 20:33:07.076672655	0.0000016214	NONE	OK
2018/12/05 20:33:07.632999715	0.0000016529	NONE	OK
2018/12/05 20:33:08.078264051	0.0000016402	NONE	OK
2018/12/05 20:33:08.633357856	0.0000016339	NONE	OK
2018/12/05 20:33:10.078219811	0.0000016656	NONE	OK
2018/12/05 20:33:10.635064595	0.0000016402	NONE	OK
2018/12/05 20:33:11.435541479	0.0000016339	NONE	OK
2018/12/05 20:33:12.078329799	0.0000016152	NONE	OK
2018/12/05 20:33:12.435805169	0.0000016277	NONE	OK
2018/12/05 20:33:13.078319515	0.0000016529	NONE	OK
2018/12/05 20:33:13.078319515	0.0000016529	NONE	OK
2018/12/05 20:33:13.436210839	0.0000016402	NONE	OK
2018/12/05 20:33:14.077636992	0.0000016152	NONE	OK
2018/12/05 20:33:14.436492900	0.0000016277	NONE	OK
2018/12/05 20:33:15.078210986	0.0000016339	NONE	OK
2018/12/05 20:33:15.436729679	0.0000016529	NONE	OK
2018/12/05 20:33:15.837282096	0.0000017044	NONE	OK
2018/12/05 20:33:16.437862727	0.0000016784	NONE	OK
2018/12/05 20:33:16.838401687	0.0000016592	NONE	OK
2018/12/05 20:33:17.437788281	0.0000016214	NONE	OK
2018/12/05 20:33:17.437788281	0.0000016214	NONE	OK
2018/12/05 20:33:17.838207154	0.0000015967	NONE	OK
2018/12/05 20:33:18.438634983	0.0000016339	NONE	OK
2018/12/05 20:33:18.838562424	0.0000016656	NONE	OK
2018/12/05 20:33:19.239205957	0.0000015664	NONE	OK
2018/12/05 20:33:19.839163205	0.0000016277	NONE	OK
2018/12/05 20:33:20.239116644	0.0000016029	NONE	OK
2018/12/05 20:33:20.840073383	0.0000016720	NONE	OK
2018/12/05 20:33:21.239763208	0.0000015967	NONE	OK
2018/12/05 20:33:21.840341814	0.0000016720	NONE	OK
2018/12/05 20:33:21.840341814	0.0000016720	NONE	OK
2018/12/05 20:33:22.240429765	0.0000016656	NONE	OK
2018/12/05 20:33:22.640809975	0.0000016277	NONE	OK
2018/12/05 20:33:23.641679303	0.0000016402	NONE	OK
2018/12/05 20:33:24.241537849	0.0000016465	NONE	OK
2018/12/05 20:33:24.642302944	0.0000016214	NONE	OK
2018/12/05 20:33:25.079850385	0.0000016465	NONE	OK
2018/12/05 20:33:25.642550712	0.0000016339	NONE	OK
2018/12/05 20:33:26.080238920	0.0000016592	NONE	OK
2018/12/05 20:33:26.642820690	0.0000016656	NONE	OK
2018/12/05 20:33:26.642820690	0.0000016656	NONE	OK
2018/12/05 20:33:27.079605545	0.0000016465	NONE	OK
2018/12/05 20:33:27.643708401	0.0000016592	NONE	OK
2018/12/05 20:33:28.079686117	0.0000016656	NONE	OK
2018/12/05 20:33:28.644156020	0.0000016339	NONE	OK
2018/12/05 20:33:29.079585639	0.0000016529	NONE	OK
2018/12/05 20:33:30.080281737	0.0000016720	NONE	OK
2018/12/05 20:33:30.445500512	0.0000016339	NONE	OK
2018/12/05 20:33:31.445839023	0.0000016402	NONE	OK
2018/12/05 20:33:32.080236398	0.0000016090	NONE	OK
2018/12/05 20:33:32.080236398	0.0000016090	NONE	OK
2018/12/05 20:33:32.446590135	0.0000016152	NONE	OK
2018/12/05 20:33:33.447345263	0.0000016656	NONE	OK
2018/12/05 20:33:33.847473179	0.0000016529	NONE	OK
2018/12/05 20:33:34.447718938	0.0000016592	NONE	OK
2018/12/05 20:33:34.847924751	0.0000016465	NONE	OK
2018/12/05 20:33:35.848500479	0.0000016529	NONE	OK
2018/12/05 20:33:36.248417902	0.0000016592	NONE	OK
2018/12/05 20:33:37.249335369	0.0000016465	NONE	OK
2018/12/05 20:33:37.849318722	0.0000016592	NONE	OK
2018/12/05 20:33:37.849318722	0.0000016592	NONE	OK
2018/12/05 20:33:38.250258561	0.0000016029	NONE	OK
2018/12/05 20:33:38.849872585	0.0000016339	NONE	OK
2018/12/05 20:33:39.249804864	0.0000016277	NONE	OK
2018/12/05 20:33:40.250528377	0.0000016465	NONE	OK
2018/12/05 20:33:40.650656291	0.0000063081	NONE	OK
2018/12/05 20:33:41.251527627	0.0000028504	NONE	OK
2018/12/05 20:33:41.651787668	0.0000019872	NONE	OK
2018/12/05 20:33:42.252043634	0.0000017916	NONE	OK
2018/12/05 20:33:42.652353953	0.0000017508	NONE	OK
2018/12/05 20:33:42.652353953	0.0000017508	NONE	OK
2018/12/05 20:33:43.082334123	0.0000017109	NONE	OK
2018/12/05 20:33:43.652690479	0.0000017374	NONE	OK
2018/12/05 20:33:44.080704145	0.0000017109	NONE	OK
2018/12/05 20:33:44.653487116	0.0000017044	NONE	OK
2018/12/05 20:33:45.081527889	0.0000016979	NONE	OK
2018/12/05 20:33:45.654439560	0.0000017109	NONE	OK
2018/12/05 20:33:46.081045227	0.0000016592	NONE	OK
2018/12/05 20:33:46.654374176	0.0000016656	NONE	OK
2018/12/05 20:33:47.081382735	0.0000016720	NONE	OK
2018/12/05 20:33:47.081382735	0.0000016720	NONE	OK
2018/12/05 20:33:47.454905219	0.0000016529	NONE	OK
2018/12/05 20:33:48.082726478	0.0000016914	NONE	OK
2018/12/05 20:33:48.455343933	0.0000016784	NONE	OK
2018/12/05 20:33:49.082633752	0.0000016720	NONE	OK
2018/12/05 20:33:49.456082712	0.0000016465	NONE	OK
2018/12/05 20:33:50.082911508	0.0000016914	NONE	OK
2018/12/05 20:33:50.456266216	0.0000016339	NONE	OK
2018/12/05 20:33:50.856439986	0.0000016592	NONE	OK
2018/12/05 20:33:51.457240690	0.0000016214	NONE	OK
2018/12/05 20:33:51.457240690	0.0000016214	NONE	OK
2018/12/05 20:33:51.857383939	0.0000016465	NONE	OK
2018/12/05 20:33:52.457563821	0.0000016402	NONE	OK
2018/12/05 20:33:52.857666062	0.0000016465	NONE	OK
2018/12/05 20:33:53.458032466	0.0000016656	NONE	OK
2018/12/05 20:33:53.857873294	0.0000016529	NONE	OK
2018/12/05 20:33:54.258740945	0.0000016784	NONE	OK
2018/12/05 20:33:54.858909801	0.0000016656	NONE	OK
2018/12/05 20:33:55.259212704	0.0000016465	NONE	OK
2018/12/05 20:33:55.859384796	0.0000016339	NONE	OK
2018/12/05 20:33:55.859384796	0.0000016339	NONE	OK
2018/12/05 20:33:56.259606224	0.0000016152	NONE	OK
2018/12/05 20:33:56.859485492	0.0000016529	NONE	OK
2018/12/05 20:33:57.259511748	0.0000016339	NONE	OK
2018/12/05 20:33:57.660890877	0.0000016656	NONE	OK
2018/12/05 20:33:58.260665100	0.0000016152	NONE	OK
2018/12/05 20:33:58.660832003	0.0000016849	NONE	OK
2018/12/05 20:33:59.261005645	0.0000016529	NONE	OK
2018/12/05 20:33:59.660885430	0.0000016339	NONE	OK
2018/12/05 20:34:00.261573899	0.0000016090	NONE	OK
2018/12/05 20:34:00.261573899	0.0000016090	NONE	OK
2018/12/05 20:34:00.661595839	0.0000016029	NONE	OK
2018/12/05 20:34:01.083386088	0.0000016784	NONE	OK
2018/12/05 20:34:01.661950733	0.0000017044	NONE	OK
2018/12/05 20:34:02.083687133	0.0000016402	NONE	OK
2018/12/05 20:34:02.662616064	0.0000016720	NONE	OK
2018/12/05 20:34:03.083914963	0.0000016214	NONE	OK
2018/12/05 20:34:03.663317587	0.0000016529	NONE	OK
2018/12/05 20:34:04.083935432	0.0000016720	NONE	OK
2018/12/05 20:34:04.463231528	0.0000016214	NONE	OK
2018/12/05 20:34:04.463231528	0.0000016214	NONE	OK
2018/12/05 20:34:05.084648938	0.0000016465	NONE	OK
2018/12/05 20:34:05.464210656	0.0000042322	NONE	OK
2018/12/05 20:34:06.083866310	0.0000080953	NONE	OK
2018/12/05 20:34:06.464529584	0.0000082522	NONE	OK
2018/12/05 20:34:07.083582739	0.0000170440	NONE	OK
2018/12/05 20:34:07.465272904	0.0000147310	NONE	OK
2018/12/05 20:34:08.083423920	0.0000217050	NONE	OK
2018/12/05 20:34:08.466112002	0.0000202570	NONE	OK
2018/12/05 20:34:08.865823855	0.0000140680	NONE	OK
2018/12/05 20:34:08.865823855	0.0000140680	NONE	OK
2018/12/05 20:34:09.466064319	0.0000168490	NONE	OK
2018/12/05 20:34:09.866447710	0.0000133320	NONE	OK
2018/12/05 20:34:10.466614842	0.0000096955	NONE	OK
2018/12/05 20:34:10.866982989	0.0000096583	NONE	OK
2018/12/05 20:34:11.466919805	0.0000070779	NONE	OK
2018/12/05 20:34:11.867148862	0.0000043308	NONE	OK
2018/12/05 20:34:12.268250186	0.0000078808	NONE	OK
2018/12/05 20:34:12.868352625	0.0000107950	NONE	OK
2018/12/05 20:34:13.268681883	0.0000073830	NONE	OK
2018/12/05 20:34:13.268681883	0.0000073830	NONE	OK
2018/12/05 20:34:13.868457330	0.0000113910	NONE	OK
2018/12/05 20:34:14.268938656	0.0000173080	NONE	OK
2018/12/05 20:34:14.869024882	0.0000177790	NONE	OK
2018/12/05 20:34:15.269180021	0.0000063812	NONE	OK
2018/12/05 20:34:15.669404857	0.0000040417	NONE	OK
2018/12/05 20:34:16.269951992	0.0000033489	NONE	OK
2018/12/05 20:34:16.670105843	0.0000029733	NONE	OK
2018/12/05 20:34:17.270354135	0.0000037720	NONE	OK
2018/12/05 20:34:17.670629656	0.0000029962	NONE	OK
2018/12/05 20:34:17.670629656	0.0000029962	NONE	OK
2018/12/05 20:34:18.085809219	0.0000027962	NONE	OK
2018/12/05 20:34:18.671145355	0.0000027642	NONE	OK
2018/12/05 20:34:19.085421347	0.0000026909	NONE	OK
2018/12/05 20:34:19.671315783	0.0000026297	NONE	OK
2018/12/05 20:34:20.084879293	0.0000025896	NONE	OK
2018/12/05 20:34:20.672060516	0.0000025307	NONE	OK
2018/12/05 20:34:21.085132902	0.0000024731	NONE	OK
2018/12/05 20:34:21.672832380	0.0000024636	NONE	OK
2018/12/05 20:34:22.085077391	0.0000024075	NONE	OK
2018/12/05 20:34:22.085077391	0.0000024075	NONE	OK
2018/12/05 20:34:22.472998972	0.0000024261	NONE	OK
2018/12/05 20:34:23.085294201	0.0000023527	NONE	OK
2018/12/05 20:34:23.473582529	0.0000023347	NONE	OK
2018/12/05 20:34:24.084838200	0.0000023169	NONE	OK
2018/12/05 20:34:24.474766897	0.0000023347	NONE	OK
2018/12/05 20:34:25.085617585	0.0000022641	NONE	OK
2018/12/05 20:34:25.474853740	0.0000022296	NONE	OK
2018/12/05 20:34:26.475198372	0.0000022468	NONE	OK
2018/12/05 20:34:27.475801829	0.0000022555	NONE	OK
2018/12/05 20:34:27.475801829	0.0000022555	NONE	OK
2018/12/05 20:34:27.876075914	0.0000022296	NONE	OK
2018/12/05 20:34:28.476518396	0.0000021457	NONE	OK
2018/12/05 20:34:29.277045568	0.0000021705	NONE	OK
2018/12/05 20:34:29.877449254	0.0000021293	NONE	OK
2018/12/05 20:34:30.277192474	0.0000021957	NONE	OK
2018/12/05 20:34:30.877680229	0.0000020729	NONE	OK
2018/12/05 20:34:31.277610126	0.0000021873	NONE	OK
2018/12/05 20:34:31.878220973	0.0000021211	NONE	OK
2018/12/05 20:34:32.878708890	0.0000021130	NONE	OK
2018/12/05 20:34:32.878708890	0.0000021130	NONE	OK
2018/12/05 20:34:33.279036545	0.0000020888	NONE	OK
2018/12/05 20:34:33.679056648	0.0000021211	NONE	OK
2018/12/05 20:34:34.279608312	0.0000020102	NONE	OK
2018/12/05 20:34:34.679429674	0.0000021049	NONE	OK
2018/12/05 20:34:35.280292695	0.0000020888	NONE	OK
2018/12/05 20:34:35.680555094	0.0000020969	NONE	OK
2018/12/05 20:34:36.086464470	0.0000020491	NONE	OK